110
Lattice="17.097166001 0.0 0.0 0.0 17.097166001 0.0 0.0 0.0 50.000000001" Properties=species:S:1:pos:R:3:initial_charges:R:1:forces:R:3 energy=-54395.981012 free_energy=-54395.981012 pbc="T T T"
Mg      -0.01977579      -0.06403223      20.02611112       0.38788494       0.00404121       0.00702659      -0.00846774
O        2.87845905       2.89048300      20.05357691      -0.35909488      -0.00353571      -0.00457925       0.00097973
O        0.07265216      -0.01621122      24.04313217      -0.34594158      -0.00995241       0.00082614       0.00904385
Mg       2.87802607       2.89981856      24.03264039       0.32864151      -0.00416352      -0.00830311      -0.00758025
Mg      -0.05679541      -0.02244059      28.11128895       0.34539947       0.00872518      -0.00006419      -0.02436399
O        2.84216661       2.88346521      28.03285929      -0.34176808      -0.00040429      -0.00431469       0.01544403
O        0.06521450      -0.03874575      32.11386733      -0.30785906      -0.00877291       0.00195198       0.01996887
Mg       2.83321988       2.79778222      32.11390768       0.33011505       0.00229636       0.00533187      -0.01534311
Al       0.01986455       0.01048601      36.08807810       0.39917245       0.00006780      -0.00070095       0.01505356
O        2.79817646       2.87969980      36.12451196      -0.28949548       0.00362730      -0.00281836      -0.00793253
O       -0.00845218      -0.02260464      40.15389439      -0.36598871      -0.00058418       0.00202465      -0.02517373
Mg       2.82347027       2.86194774      40.12467632       0.37450518       0.00139734       0.00007893       0.01559193
Mg      -0.01311963       5.68884136      20.01389975       0.35809711       0.00104170       0.00138762      -0.01208310
O        2.88483353       8.53089094      19.98994326      -0.39844003      -0.00374489       0.00503577       0.00578795
O        0.01824130       5.68375524      24.02609983      -0.34215311      -0.00288680       0.00231951       0.01117640
Mg       2.93610622       8.47955920      24.08275744       0.32952672      -0.00792830       0.00779841      -0.01546489
Mg       0.01618836       5.66980413      28.05127002       0.33684778       0.00229164       0.00418620      -0.00866225
O        2.89775999       8.56607356      28.03611550      -0.34409368      -0.00333350      -0.00510176       0.01447096
O        0.00098434       5.69271543      32.11850196      -0.34614452       0.00091005      -0.00407309       0.00491540
Mg       2.80736285       8.54980398      32.12839970       0.33498536       0.00160592       0.00205420      -0.01655102
Mg      -0.05099633       5.74927869      36.12175373       0.31982162       0.00206186      -0.00309581       0.00555852
O        2.90595186       8.57235181      36.11808375      -0.31404624       0.00694553      -0.01459952      -0.00486053
O        0.00052200       5.64551070      40.18059726      -0.40522187       0.00076228       0.00700968      -0.00827122
Mg       2.86107325       8.56143532      40.13941952       0.38989854      -0.00181500       0.00306323       0.01287217
Mg      -0.03933924      11.41595738      19.95997772       0.43559881       0.00504073      -0.00498568       0.00073155
O        2.91837261      14.29167804      19.98844550      -0.39816018      -0.00908642      -0.00656659       0.00234834
O       -0.02127159      11.42120558      24.02704854      -0.34569413      -0.00164801      -0.00256630       0.00803633
Mg       2.90264869      14.18533653      24.05008699       0.32444578      -0.00686892       0.00320517      -0.01090785
Mg      -0.05150974      11.38281088      28.09429302       0.33699468       0.01033757      -0.00244550      -0.01584759
O        2.91196684      14.18108805      28.04475260      -0.34257457      -0.00829413       0.00667957       0.01477759
O        0.01041328      11.32376383      32.10037284      -0.34337755      -0.00476942       0.00801788       0.00764322
Mg       2.78880506      14.20083247      32.08162464       0.33130130       0.01361701      -0.00307592      -0.00930555
Mg      -0.00523666      11.38029713      36.14802678       0.32297365       0.00410667       0.00002277       0.00398042
O        2.89648014      14.22543748      36.10283304      -0.31847691      -0.01546064       0.01319370      -0.00581040
O       -0.04813081      11.45586652      40.15503531      -0.40505697       0.00379708      -0.00634089      -0.00787984
Mg       2.87432712      14.29438426      40.13265104       0.38473278      -0.00249489      -0.00754421       0.01095697
Mg       5.73608373      -0.01403316      20.04022747       0.37834282      -0.00311455       0.00470400      -0.00953774
O        8.51938531       2.87640312      19.99439899      -0.39950045       0.00402269      -0.00108332       0.00709208
O        5.63754760      -0.04066777      24.02926761      -0.34229820       0.00829873       0.00516020       0.01365388
Mg       8.54447463       2.83286482      24.07320913       0.33553648      -0.00119397       0.00035133      -0.01709959
Mg       5.63749297       0.00897886      28.04019097       0.33864572       0.00311020      -0.00472630      -0.00831708
O        8.52057468       2.81357491      28.09770255      -0.33886363       0.00378451       0.00585715       0.00696796
O        5.70905406       0.01682153      32.06838991      -0.34666687      -0.00312396       0.00041800       0.00975812
Mg       8.50999076       2.83876615      32.08940559       0.33338522       0.00459545      -0.00328237      -0.00788292
Mg       5.74916075       0.02655180      36.16180119       0.32062906      -0.00419933      -0.00452417      -0.00098133
O        8.56969331       2.82439818      36.09554890      -0.31752738      -0.01198952       0.01299219      -0.00413400
O        5.60046057      -0.03901267      40.10286965      -0.40424764       0.00919045       0.00805311      -0.00432668
Mg       8.58391779       2.85258934      40.12918694       0.39453091      -0.00089552      -0.00129663       0.01190561
Mg       5.67352449       5.68492020      19.97980473       0.36383293       0.00459716       0.00219026      -0.00983814
O        8.58330000       8.56567932      19.98718284      -0.39964280      -0.00181186       0.00433941       0.00181801
O        5.70752096       5.68974932      24.03654965      -0.34040862       0.00328754      -0.00180921       0.01091970
Mg       8.60202915       8.54869191      23.96578841       0.32910246      -0.00652828      -0.00001940      -0.00765935
Mg       5.74931045       5.69059678      28.03571648       0.33820629      -0.00693330       0.00219505      -0.01110949
O        8.53056426       8.53363836      28.04132656      -0.34017293       0.00622008      -0.00216955       0.01420463
O        5.64672609       5.67558293      32.09086107      -0.30795974       0.00537829       0.00227778       0.02489598
Mg       8.53370059       8.54661745      32.08175116       0.33673371      -0.00094849       0.00196142      -0.01018532
Al       5.66101888       5.69935594      36.06408094       0.39695487       0.00208434       0.00548694       0.01368651
O        8.50103038       8.53628753      36.13196319      -0.29557146       0.00030569      -0.00181069      -0.01037488
O        5.69840024       5.74622748      40.17878690      -0.36865154      -0.00014046      -0.00594523      -0.02479850
Mg       8.55928872       8.59475973      40.14619315       0.37318686      -0.00114331      -0.00353993       0.01305691
Mg       5.60327390      11.39968398      19.91391644       0.43835344       0.00664185      -0.00117751       0.00314774
O        8.50292283      14.34332405      20.02301441      -0.39907664       0.00727137      -0.01117391       0.00171667
O        5.67205128      11.35898826      24.06025196      -0.34351321       0.00706369       0.00160398       0.00466494
Mg       8.52544118      14.23101183      24.01234634       0.33264691      -0.00013993       0.00118529      -0.00746623
Mg       5.74266306      11.37887468      28.02393360       0.33174515      -0.00369009       0.00183366      -0.00553966
O        8.63625237      14.25502286      28.03609720      -0.34397267      -0.00507052      -0.00075718       0.01177955
O        5.71176583      11.45469710      32.07316078      -0.34651385       0.00216187      -0.00743786       0.00890258
Mg       8.52465842      14.27058105      32.10269692       0.33500711      -0.00382219       0.00217947      -0.01291934
Mg       5.71866664      11.42235933      36.10121366       0.32162119      -0.00211023       0.00069410       0.00605503
O        8.56275985      14.27319894      36.16651904      -0.31534754       0.01251275      -0.01269797      -0.01312150
O        5.72643818      11.39878138      40.26004228      -0.40657985      -0.00199848       0.00065175      -0.01287451
Mg       8.51026642      14.23222142      40.09117805       0.38243331       0.00023236       0.00307478       0.01624173
Mg      11.40153234       0.04507609      20.02905911       0.42144506      -0.00263381       0.00186921      -0.00718309
O       14.23975712       2.86085731      19.95103884      -0.39885713      -0.00067963      -0.00339787       0.01002805
O       11.39344347      -0.00042770      24.00108171      -0.34229477       0.00201891       0.00091299       0.01439835
Mg      14.23168555       2.88640187      24.02164538       0.33282959       0.00387875      -0.00287893      -0.01276752
Mg      11.40268600       0.03937163      28.11358493       0.33652098      -0.00327008      -0.00628246      -0.01526332
O       14.24492752       2.83756417      28.03686364      -0.33851909      -0.00132087      -0.00059645       0.01414831
O       11.39598921       0.00479204      32.08678554      -0.34427759       0.00473196      -0.00079854       0.00825239
Mg      14.23879924       2.88203639      32.09033690       0.33852211      -0.00122914       0.00188979      -0.00593341
Mg      11.42050725       0.01869746      36.12065257       0.32123483      -0.00127229       0.00074048       0.00592699
O       14.26851775       2.85611064      36.16802713      -0.31630030       0.00999779      -0.01462431      -0.01214547
O       11.41459196      -0.08259246      40.17325365      -0.40620399      -0.00263027       0.00669188      -0.00876267
Mg      14.25629842       2.87170392      40.14085460       0.38601067      -0.00285969      -0.00147773       0.01228964
Mg      11.39372186       5.72369512      20.01003509       0.42033274      -0.00081140      -0.00308620      -0.00736307
O       14.25763979       8.49816053      19.92504736      -0.39897924      -0.00174238       0.00851714       0.00800625
O       11.37330675       5.72329454      23.98389582      -0.34182348       0.00402448      -0.00241373       0.01815965
Mg      14.25101639       8.59611300      24.01106254       0.33498552       0.00443892      -0.00441721      -0.00949284
Mg      11.39230311       5.69222370      28.08650236       0.34501975       0.00181350       0.00267800      -0.01234998
O       14.30799547       8.50527962      28.12759452      -0.34156872      -0.00790138       0.00256780       0.00303495
O       11.46778784       5.73030181      32.14012445      -0.34440378      -0.01108357      -0.00362332       0.00057330
Mg      14.22368411       8.53946212      32.08341738       0.32495508       0.00705783      -0.00426713      -0.00726111
Mg      11.39836023       5.69845010      36.10913766       0.31960005      -0.00006527       0.00048168       0.00783549
O       14.24359916       8.49267089      36.11192427      -0.31767766      -0.00940299       0.01796404      -0.00450313
O       11.38711634       5.72246729      40.15055184      -0.40551031       0.00029193      -0.00201996      -0.00671871
Mg      14.25182637       8.55413004      40.16973672       0.38899702       0.00134197      -0.00377398       0.00919432
Mg      11.39708741      11.43202995      19.99152133       0.43234339      -0.00293317      -0.00235373      -0.00358842
O       14.22210049      14.23742339      19.89083745      -0.39647634       0.00012213      -0.00086002       0.00916253
O       11.39717208      11.36225448      24.10672926      -0.34142176       0.00208765       0.00440463       0.00027240
Mg      14.22305056      14.27273343      24.02676728       0.33476471       0.00504845      -0.00090631      -0.00934873
Mg      11.41241516      11.39846636      28.03658127       0.33912875      -0.00233304      -0.00028660      -0.01139247
O       14.26535261      14.21609369      28.05209390      -0.33926434      -0.00068570       0.00364480       0.01546475
O       11.40169660      11.36959922      32.08324340      -0.30799257      -0.00018796       0.00367490       0.02309073
Mg      14.23308333      14.21580783      32.08372503       0.33553753       0.00064488       0.00104812      -0.01162490
Al      11.44619585      11.45548669      36.06283057       0.39603740      -0.00378451      -0.00555019       0.01357346
O       14.27593950      14.23140724      36.07697326      -0.28918411      -0.00281197       0.00051917      -0.00615718
O       11.41243631      11.39936851      40.12245003      -0.36358140      -0.00087882      -0.00091956      -0.02286636
Mg      14.20695318      14.20143252      40.15136643       0.37335335       0.00374504       0.00515251       0.01430235
Au       2.76744417       3.26765479      15.26653896      -0.01812949       0.00047752      -0.00221427       0.05100758
Au       2.78849632       3.18440177      10.71613944      -0.21088750      -0.00003811       0.00019468      -0.04113271
110
Lattice="17.097166001 0.0 0.0 0.0 17.097166001 0.0 0.0 0.0 50.000000001" Properties=species:S:1:pos:R:3:initial_charges:R:1:forces:R:3 energy=-54395.988758 free_energy=-54395.988758 pbc="T T T"
Mg       0.00628289       0.02024456      20.01896472       0.41977022       0.00150882      -0.00865975      -0.00401978
O        2.90881887       2.84806526      20.01154014      -0.39775680      -0.00552735       0.00063935       0.00105426
O       -0.06517878       0.00924114      23.99513111      -0.34371456       0.00755272      -0.00034204       0.01658755
Mg       2.88346401       2.88137023      23.99135185       0.33433852      -0.00671642      -0.00371719      -0.01315685
Mg       0.03208142      -0.00491841      28.06054175       0.33950103      -0.00418535       0.00230445      -0.02378128
O        2.85087534       2.85797980      28.05149989      -0.33855248      -0.00184813       0.00192967       0.01271376
O       -0.05285957      -0.00832927      32.05927037      -0.30288408       0.00540380       0.00268864       0.03263010
Mg       2.73062928       2.83515601      32.08413030       0.33526787       0.01679944       0.00194330      -0.01655289
Al       0.00613817       0.02050634      36.05754969       0.40489414      -0.00332847      -0.00311854       0.00840248
O        2.79334825       2.79517251      36.14751495      -0.29024431      -0.00178115      -0.00217184      -0.00835847
O       -0.07820342       0.00226690      40.16295827      -0.36272806       0.00573802      -0.00082930      -0.02387440
Mg       2.79927919       2.76497053      40.11690520       0.37520407       0.00237032       0.00779994       0.01702705
Mg       0.00116689       5.64919177      19.92739062       0.43468123       0.00099276       0.00868445       0.00242667
O        2.86203763       8.58236840      19.97264013      -0.39729909      -0.00633789      -0.01109984       0.00992083
O       -0.08814328       5.68928461      24.02514752      -0.34356159       0.01277584      -0.00057912       0.01329129
Mg       2.84477636       8.53134650      24.08599520       0.33049400      -0.00476015       0.00341740      -0.02009413
Mg       0.01408641       5.68419431      28.05986933       0.34006787      -0.00472685       0.00349078      -0.01699700
O        2.91261343       8.60214967      28.05733657      -0.34171049      -0.00939705      -0.00834200       0.01545123
O        0.00282663       5.67969582      32.09541956      -0.34131105      -0.00071151       0.00120590       0.01192176
Mg       2.78735541       8.53700823      32.13754772       0.33456349       0.00745623       0.00537910      -0.01636810
Mg      -0.06214336       5.66551449      36.09317509       0.32758835       0.00431806       0.00810321       0.00756412
O        2.96768713       8.54889332      36.13428311      -0.31602164       0.00207696      -0.01899850      -0.00306234
O       -0.05703354       5.73864705      40.14478485      -0.40486795       0.00667769      -0.00524590      -0.00680827
Mg       2.83906862       8.54330285      40.20385859       0.38938586      -0.00259473       0.00365194       0.00619623
Mg       0.01027378      11.39619553      20.02407770       0.40007513       0.00076259      -0.00086744      -0.00815984
O        2.81478891      14.19009185      19.97039642      -0.39995351       0.00061110       0.01044452       0.00977023
O        0.05307016      11.41637580      24.01306616      -0.34420964      -0.00716133      -0.00227024       0.01850877
Mg       2.83986578      14.20563052      24.04756821       0.33377407      -0.00056290       0.00379057      -0.01736040
Mg      -0.03408718      11.44621970      28.10335771       0.34058792       0.00330257      -0.00371600      -0.01999659
O        2.81672591      14.29897552      28.07488186      -0.34216430      -0.00044641      -0.00243567       0.01275955
O       -0.05377068      11.38734356      32.11400116      -0.34464824       0.00340129       0.00321570       0.00803864
Mg       2.86324859      14.28901436      32.10699368       0.33352938       0.00688320      -0.00899129      -0.01701364
Mg      -0.03959764      11.41264845      36.13875934       0.32026041       0.00825848      -0.00304212      -0.00053300
O        2.86893978      14.22423728      36.07490939      -0.31501582      -0.01560053       0.01702834       0.00023057
O        0.00346648      11.44609467      40.09263556      -0.40354042      -0.00218667      -0.00331432      -0.00254799
Mg       2.78446277      14.26559587      40.13976030       0.38817682       0.01042893      -0.00613266       0.01052213
Mg       5.69421757      -0.02020503      19.95517578       0.41909262       0.00272236      -0.00605011      -0.00219883
O        8.50958632       2.89587709      20.00053629      -0.40015733       0.00587664      -0.00663534       0.00366506
O        5.70862528       0.04200521      24.06228982      -0.34213952      -0.00339978      -0.00219186       0.01034661
Mg       8.54662221       2.81953212      24.06412950       0.33185597       0.00423320       0.00297081      -0.02023923
Mg       5.72427657       0.10744349      27.96035268       0.33284362      -0.00196060      -0.01105644      -0.00269376
O        8.61215009       2.81431115      28.07172288      -0.34092750      -0.00664061       0.00693716       0.01011708
O        5.70244765      -0.00208871      31.99271139      -0.34708614      -0.00495879       0.00387056       0.01976250
Mg       8.52087027       2.86264762      32.16957920       0.32974713       0.00289445      -0.00575419      -0.02397155
Mg       5.69982203      -0.04822207      36.18090630       0.32569788       0.00250552      -0.00155888      -0.00489347
O        8.56775190       2.79729188      36.08363760      -0.31331734      -0.01559801       0.01750417       0.00245789
O        5.70377703       0.00860383      40.16527795      -0.40391425      -0.00348071       0.00062500      -0.00791953
Mg       8.52620975       2.86242414      40.10111209       0.38615849       0.00474873      -0.00150624       0.01494704
Mg       5.71367387       5.73411248      20.03164004       0.40767031       0.00241115       0.00218626      -0.01019056
O        8.54612302       8.51995177      19.93812072      -0.39600601      -0.00007748      -0.00395155       0.01964779
O        5.69793587       5.72195952      24.03654451      -0.33792756      -0.00156929      -0.00315684       0.01546365
Mg       8.52311993       8.56211515      23.99067066       0.33315523       0.00658186      -0.00204218      -0.01451054
Mg       5.66849271       5.64993687      27.97671659       0.34139169       0.00459032       0.00631516      -0.00611400
O        8.53386386       8.54775382      28.07599975      -0.34106731       0.00306436      -0.00000663       0.01134691
O        5.67618762       5.69088308      32.03251423      -0.31405535       0.00050717      -0.00118864       0.03322372
Mg       8.56824003       8.54946336      32.03330452       0.33458137      -0.00742335      -0.00046918      -0.01338215
Al       5.74112193       5.70729614      36.16684216       0.40492602      -0.00757379       0.00603304       0.00144907
O        8.51390969       8.52798938      36.13733309      -0.28697004       0.00556677      -0.00148738      -0.00627857
O        5.67890709       5.70951625      40.17453857      -0.36197211       0.00180562      -0.00294838      -0.02615006
Mg       8.51645958       8.60192863      40.19415697       0.37662267       0.00254965      -0.00076594       0.01401015
Mg       5.71681788      11.31791594      20.04623526       0.30463931       0.00220971       0.00729843      -0.02285791
O        8.50758204      14.24706991      20.04125448      -0.39647264       0.00502033       0.00672099       0.01428436
O        5.66258755      11.37059634      24.04777181      -0.33873762       0.00399260       0.00110316       0.01515596
Mg       8.55564870      14.18320998      24.07462302       0.32974179      -0.00223203       0.00462642      -0.02245296
Mg       5.67504298      11.34877112      28.04470668       0.33600973      -0.00012916       0.00600565      -0.00887977
O        8.52188751      14.25627930      28.01831201      -0.33898805       0.00282577      -0.00262981       0.01713028
O        5.67336677      11.39036658      32.10928819      -0.34919915       0.00439418      -0.00013122       0.00880196
Mg       8.50670296      14.28078621      32.02658607       0.33549418      -0.00256925       0.00230726      -0.00789132
Mg       5.68759019      11.36889757      36.18672040       0.31815285       0.00045760       0.00661056      -0.00281192
O        8.58509597      14.24603838      36.10401329      -0.31679951       0.01126988      -0.01574950      -0.00242869
O        5.70774652      11.40326379      40.19222582      -0.40880335      -0.00089453       0.00080743      -0.00674789
Mg       8.65637466      14.33135641      40.18371844       0.38655426      -0.01303810      -0.00352850       0.00884943
Mg      11.39931870       0.00035464      19.99272350       0.42741427      -0.00421585      -0.00618803      -0.00465019
O       14.31431091       2.84625470      19.96980547      -0.39730801      -0.00548414      -0.00384612       0.00077042
O       11.39231658      -0.00383019      24.06290101      -0.34128113       0.00030046       0.00066184       0.00870224
Mg      14.25406942       2.79914073      24.02384697       0.32639220      -0.00067795       0.00659032      -0.01087585
Mg      11.39038194       0.00496577      28.03899778       0.33470898       0.00160838       0.00422511      -0.00856744
O       14.27740492       2.85068416      28.05716166      -0.34307268       0.00017011      -0.00007170       0.01555744
O       11.40886947       0.02555161      32.12100354      -0.34800290       0.00040123      -0.00335202       0.00780237
Mg      14.25663793       2.88139254      32.09865192       0.33092456      -0.01152809       0.00073151      -0.01757259
Mg      11.36530165      -0.01715302      36.13209976       0.32162524       0.00324820       0.00026922      -0.00133260
O       14.23964871       2.88242562      36.12216547      -0.31477450       0.01282302      -0.01594788      -0.00548371
O       11.37767134       0.01893315      40.17835927      -0.40446289       0.00462379       0.00065098      -0.00935980
Mg      14.25914340       2.85415923      40.15265530       0.38411698      -0.00719532       0.00231917       0.01037951
Mg      11.41718324       5.65987365      19.99851027       0.41128914      -0.00521135       0.00789445      -0.00597335
O       14.18055127       8.50662414      20.01039147      -0.39784036       0.01190252      -0.00091486       0.00354390
O       11.42791571       5.69860196      23.96086467      -0.34405517      -0.00536676      -0.00373277       0.02193996
Mg      14.24759245       8.52550764      23.97422010       0.32676569      -0.00059840       0.00169809      -0.00946426
Mg      11.38011820       5.72630584      28.04862255       0.34049146       0.00405769      -0.00265177      -0.01570218
O       14.26910566       8.56914703      28.05528975      -0.34173201      -0.00224206       0.00156496       0.01613356
O       11.39895238       5.67514487      32.05184853      -0.34432131      -0.00107335       0.00783970       0.01682775
Mg      14.24198628       8.61284995      32.06705302       0.33318537       0.00197713      -0.00835256      -0.01374699
Mg      11.37080716       5.67882885      36.12225616       0.32519851       0.00504307       0.00017089       0.00193354
O       14.25085229       8.62288577      36.12567435      -0.31104994      -0.01845094       0.00795420      -0.00639685
O       11.43504701       5.73237354      40.13854641      -0.40548165      -0.00719010      -0.00130826      -0.00694663
Mg      14.25735952       8.47736141      40.17102495       0.38692977       0.00001554       0.00503394       0.00884917
Mg      11.45995368      11.40394394      19.95995493       0.31618747      -0.01039699      -0.00240177      -0.01878493
O       14.26349936      14.19813747      19.97375885      -0.39711260      -0.00029970       0.00886261       0.00914929
O       11.40671845      11.36802136      24.04385785      -0.34039396      -0.00090467       0.00343229       0.01466247
Mg      14.19841039      14.27988938      24.02970164       0.33124739       0.00513559      -0.00513065      -0.01627628
Mg      11.37798301      11.47054533      28.07276930       0.34206444       0.00172056      -0.00711866      -0.02259275
O       14.20997574      14.30996003      28.03884063      -0.33826533       0.00284670      -0.00514609       0.01789287
O       11.43027137      11.44171593      32.08571282      -0.30663010      -0.00511004      -0.00413483       0.02957687
Mg      14.26645130      14.28782878      32.05897213       0.32872457      -0.00597265      -0.00075292      -0.01338879
Al      11.39756656      11.34174438      36.09697827       0.41369160      -0.00030299       0.00835018       0.00568643
O       14.27257287      14.21105519      36.02926692      -0.29285677      -0.00353099       0.00504603       0.00420601
O       11.35469233      11.46017581      40.16592469      -0.36393253       0.00673073      -0.00584102      -0.02611488
Mg      14.28241536      14.21639177      40.11626108       0.37507214      -0.00453309       0.00214683       0.01340321
Au      11.07291432      11.34950401      14.33032370      -0.09532437       0.02045117      -0.00026611       0.00122091
Au       6.35714362      11.48230364      14.53614878      -0.07990223      -0.02089880       0.00075901       0.00061315
110
Lattice="17.097166001 0.0 0.0 0.0 17.097166001 0.0 0.0 0.0 50.000000001" Properties=species:S:1:pos:R:3:initial_charges:R:1:forces:R:3 energy=-54395.983121 free_energy=-54395.983121 pbc="T T T"
Mg      -0.02567635      -0.00005669      20.03507713       0.41944067       0.00547998      -0.00546923      -0.00885456
O        2.82919975       2.86303830      20.02353366      -0.39896131      -0.00262464      -0.00077738       0.00212312
O       -0.05622322       0.01079209      23.99897859      -0.33955581       0.00589901       0.00016621       0.01912192
Mg       2.79251847       2.85292607      23.99447086       0.33335912       0.00572123       0.00099769      -0.01061820
Mg      -0.01200212       0.01574380      28.06934663       0.34403523      -0.00139008      -0.00403881      -0.01892263
O        2.87622630       2.80071336      28.09943091      -0.33882964      -0.00347390       0.00187064       0.01149662
O        0.06419943      -0.03176352      32.10679252      -0.30561225      -0.00296919       0.00457302       0.02957106
Mg       2.87965660       2.84949979      32.02130727       0.33778810      -0.00139392      -0.00017966      -0.00926852
Al       0.07627505      -0.05962339      36.09820826       0.40088635      -0.00590110       0.00208409       0.00839291
O        2.93269167       2.85610230      36.19837655      -0.28782739      -0.00232691       0.00315582      -0.01273937
O       -0.07061829       0.02010430      40.17457223      -0.36325923       0.00761772      -0.00083629      -0.02442843
Mg       2.84574417       2.79890695      40.19548728       0.37859581      -0.00295250       0.00623529       0.01611893
Mg      -0.02354578       5.65951960      20.00013383       0.43234324       0.00345041       0.00786923      -0.00292026
O        2.84831000       8.60966356      19.94857468      -0.39880693      -0.00762711      -0.01225534       0.01229377
O       -0.02051052       5.68900639      24.14096589      -0.34314896       0.00235557      -0.00303073       0.00093886
Mg       2.88547178       8.57790183      24.03081373       0.33252243      -0.00340941      -0.00345148      -0.01445126
Mg      -0.05979375       5.62302823      28.06086811       0.33030088       0.00757143       0.01418261      -0.01396372
O        2.85099762       8.55249986      28.02092244      -0.34489926       0.00296449      -0.00156627       0.01750307
O        0.00077088       5.71558962      32.04311822      -0.34225064       0.00298360      -0.00677275       0.01674881
Mg       2.85502565       8.54634187      32.13526859       0.33355082      -0.00491508       0.00512246      -0.02031478
Mg       0.04098952       5.67043424      36.09385790       0.32682821      -0.00489011       0.00552125       0.00721590