8
Lattice="5.084244657735405 0.0 0.0 0.0 5.084244657735405 0.0 0.0 0.0 5.084244657735405" Properties=species:S:1:pos:R:3:charges:R:1:forces:R:3 energy=-2581.295843451286 free_energy=-2581.295843451286 pbc="T T T"
Li       0.00000000       0.00000000       0.00000000      -0.12000000       0.00000000       0.00000000       0.00000000
Li       2.54212233       2.54212233       0.00000000      -0.12000000       0.00000000       0.00000000       0.00000000
Li       2.54212233       0.00000000       2.54212233      -0.12000000       0.00000000       0.00000000       0.00000000
Li       0.00000000       2.54212233       2.54212233      -0.12000000       0.00000000       0.00000000       0.00000000
Cl       0.00000000       0.00000000       2.54212233       0.12000000       0.00000000       0.00000000       0.00000000
Cl       2.54212233       0.00000000       0.00000000       0.12000000       0.00000000       0.00000000       0.00000000
Cl       0.00000000       2.54212233       0.00000000       0.12000000       0.00000000       0.00000000       0.00000000
Cl       2.54212233       2.54212233       2.54212233       0.12000000       0.00000000       0.00000000       0.00000000
8
Lattice="5.084239895140529 0.0 0.0 0.0 5.084239895140529 0.0 0.0 0.0 5.084239895140529" Properties=species:S:1:pos:R:3:charges:R:1:forces:R:3 energy=-2425.31079640359 free_energy=-2425.31079640359 pbc="T T T"
Li       0.74509536       4.87680291       0.97159824      -0.11000000      -2.50439538       1.63861598       0.56884012
Li       4.82667230       2.19084981       4.73296976      -0.29000000    -250.21195893     -11.83920681    -127.29564122
Li       4.91086731       1.15112275       1.83790188      -0.06000000       7.92800688       6.86302510      -3.88468748
Li       0.81388512       1.84705351       1.84354539      -0.06000000       6.01968501       4.13433106       3.46578176
Cl       0.36301473       2.21428816       5.03904100       0.47000000     238.37394280       7.02120451     122.52050512
Cl       1.69864455       3.56506901       0.47130904      -0.03000000    -122.53446313     238.69558009      17.42122089
Cl       3.72217203       0.42366971       2.19852702       0.22000000     -15.27494291     -10.20641540       5.06343364
Cl       2.20350957       2.64339801       0.40506139      -0.14000000     138.20412539    -236.30713453     -17.85945283
8
Lattice="5.084239895140529 0.0 0.0 0.0 5.084239895140529 0.0 0.0 0.0 5.084239895140529" Properties=species:S:1:pos:R:3:charges:R:1:forces:R:3 energy=-2444.9555013697295 free_energy=-2444.9555013697295 pbc="T T T"
Li       0.99346048       4.80765724       1.29546433      -0.08000000      -0.33161214      -0.61494874       1.46895608
Li       0.50394986       2.07375977       4.61587972      -0.28000000      -1.75987178      85.07024688      44.15097886
Li       0.61620988       1.53483034       1.60316252       0.09000000    -309.64388833     -50.76447840      -3.77258610
Li       1.08518016       1.61536470       1.61068720       0.09000000     308.21221813      51.37247616       7.57841193
Cl       0.48401964       1.25763758       4.17660139       0.25000000      -6.26711358     -91.60294230     -49.35223134
Cl       1.41748608       3.05867872       0.62841205       0.03000000     -70.23854930      42.91469707     101.07115182
Cl       3.26814940       4.80175953       2.93136935       0.19000000      -0.11302107      -0.04843316      -0.57330587
Cl       2.09063944       2.67715736       4.77694844      -0.29000000      80.14183807     -36.32661777    -100.57137564
8
Lattice="5.084239895140529 0.0 0.0 0.0 5.084239895140529 0.0 0.0 0.0 5.084239895140529" Properties=species:S:1:pos:R:3:charges:R:1:forces:R:3 energy=-2469.538850598634 free_energy=-2469.538850598634 pbc="T T T"
Li       1.24182559       4.73851158       1.61933041      -0.14000000       0.77427795      -2.48114258      -1.47020924
Li       1.26546731       1.95666972       4.49878967      -0.24000000     -30.26528681     -37.31175703       8.62867312
Li       1.40579233       1.91853792       1.36842317      -0.07000000      50.81655686     125.84410024      60.49439099
Li       1.35647520       1.38367589       1.37782901       0.03000000     -16.64998765    -207.41640138      10.08645159
Cl       0.60502455       0.30098700       3.31416178       0.14000000      -3.59202549       1.12807125       1.86031192
Cl       1.13632762       2.55228843       0.78551506       0.57000000     -38.88490270      87.20319986     -52.89652533
Cl       2.81412678       4.09560945       3.66421169      -0.26000000       9.25243380       9.16537033      -2.88576505
Cl       1.97776932       2.71091671       4.06459558      -0.03000000      28.54893455      23.86855903     -23.81732775
8
Lattice="5.084239895140529 0.0 0.0 0.0 5.084239895140529 0.0 0.0 0.0 5.084239895140529" Properties=species:S:1:pos:R:3:charges:R:1:forces:R:3 energy=-2492.6857107372175 free_energy=-2492.6857107372175 pbc="T T T"
Li       1.49019071       4.66936592       1.94319649      -0.16000000      74.97725518      23.54251564     -49.67096894
Li       2.02698476       1.83957968       4.38169963      -0.15000000       2.03366547     -21.92813745      13.90512702
Li       2.19537479       2.30224551       1.13368381      -0.09000000      27.44279506       9.36370909       4.91438756
Li       1.62777024       1.15198708       1.14497082      -0.05000000      26.59277704     -38.12028516       8.44465284
Cl       0.72602946       4.42857632       2.45172216       0.33000000     -77.53222081     -19.69057425      48.55766481
Cl       0.85516915       2.04589813       0.94261808       0.37000000     -56.53497903      28.28653059     -11.46551419
Cl       2.36010416       3.38945937       4.39705403      -0.18000000      31.57620566      45.51716949      57.93285285
Cl       1.86489919       2.74467606       3.35224273      -0.07000000     -28.55549832     -26.97092795     -72.61820169
8
Lattice="5.084239895140529 0.0 0.0 0.0 5.084239895140529 0.0 0.0 0.0 5.084239895140529" Properties=species:S:1:pos:R:3:charges:R:1:forces:R:3 energy=-2536.1789024630034 free_energy=-2536.1789024630034 pbc="T T T"
Li       1.73855583       4.60022026       2.26706257      -0.08000000       5.35849112       9.09163521       5.40483345
Li       2.78850221       1.72248963       4.26460958      -0.12000000       7.48431341      -7.86488039      -7.91559951
Li       2.98495724       2.68595309       0.89894446      -0.12000000      21.32722179       1.22915778      14.69161694
Li       1.89906529       0.92029826       0.91211264      -0.05000000      13.33164555      -7.07627805      -2.28198852
Cl       0.84703437       3.47192574       1.58928255      -0.04000000     -24.47618039      16.79410466     -10.86480216
Cl       0.57401068       1.53950784       1.09972109       0.18000000     -23.89090012      -9.53116324       1.65688033
Cl       1.90608154       2.68330929       0.04565647       0.34000000     -13.97456095       7.31854282     -18.29879188
Cl       1.75202907       2.77843542       2.63988988      -0.10000000      14.83996959      -9.96111905      17.60785162
8
Lattice="5.084244657735405 0.0 0.0 0.0 5.084244657735405 0.0 0.0 0.0 5.084244657735405" Properties=species:S:1:pos:R:3:charges:R:1:forces:R:3 energy=-2581.295843451286 free_energy=-2581.295843451286 pbc="T T T"
Li       0.00000000       0.00000000       0.00000000      -0.12000000       0.00000000       0.00000000       0.00000000
Li       2.54212233       2.54212233       0.00000000      -0.12000000       0.00000000       0.00000000       0.00000000
Li       2.54212233       0.00000000       2.54212233      -0.12000000       0.00000000       0.00000000       0.00000000
Li       0.00000000       2.54212233       2.54212233      -0.12000000       0.00000000       0.00000000       0.00000000
Cl       0.00000000       0.00000000       2.54212233       0.12000000       0.00000000       0.00000000       0.00000000
Cl       2.54212233       0.00000000       0.00000000       0.12000000       0.00000000       0.00000000       0.00000000
Cl       0.00000000       2.54212233       0.00000000       0.12000000       0.00000000       0.00000000       0.00000000
Cl       2.54212233       2.54212233       2.54212233       0.12000000       0.00000000       0.00000000       0.00000000
8
Lattice="5.084239895140529 0.0 0.0 0.0 5.084239895140529 0.0 0.0 0.0 5.084239895140529" Properties=species:S:1:pos:R:3:charges:R:1:forces:R:3 energy=-2425.31079640359 free_energy=-2425.31079640359 pbc="T T T"
Li       0.74509536       4.87680291       0.97159824      -0.11000000      -2.50439538       1.63861598       0.56884012
Li       4.82667230       2.19084981       4.73296976      -0.29000000    -250.21195893     -11.83920681    -127.29564122
Li       4.91086731       1.15112275       1.83790188      -0.06000000       7.92800688       6.86302510      -3.88468748
Li       0.81388512       1.84705351       1.84354539      -0.06000000       6.01968501       4.13433106       3.46578176
Cl       0.36301473       2.21428816       5.03904100       0.47000000     238.37394280       7.02120451     122.52050512
Cl       1.69864455       3.56506901       0.47130904      -0.03000000    -122.53446313     238.69558009      17.42122089
Cl       3.72217203       0.42366971       2.19852702       0.22000000     -15.27494291     -10.20641540       5.06343364
Cl       2.20350957       2.64339801       0.40506139      -0.14000000     138.20412539    -236.30713453     -17.85945283
8
Lattice="5.084239895140529 0.0 0.0 0.0 5.084239895140529 0.0 0.0 0.0 5.084239895140529" Properties=species:S:1:pos:R:3:charges:R:1:forces:R:3 energy=-2444.9555013697295 free_energy=-2444.9555013697295 pbc="T T T"
Li       0.99346048       4.80765724       1.29546433      -0.08000000      -0.33161214      -0.61494874       1.46895608
Li       0.50394986       2.07375977       4.61587972      -0.28000000      -1.75987178      85.07024688      44.15097886
Li       0.61620988       1.53483034       1.60316252       0.09000000    -309.64388833     -50.76447840      -3.77258610
Li       1.08518016       1.61536470       1.61068720       0.09000000     308.21221813      51.37247616       7.57841193
Cl       0.48401964       1.25763758       4.17660139       0.25000000      -6.26711358     -91.60294230     -49.35223134
Cl       1.41748608       3.05867872       0.62841205       0.03000000     -70.23854930      42.91469707     101.07115182
Cl       3.26814940       4.80175953       2.93136935       0.19000000      -0.11302107      -0.04843316      -0.57330587
Cl       2.09063944       2.67715736       4.77694844      -0.29000000      80.14183807     -36.32661777    -100.57137564
8
Lattice="5.084239895140529 0.0 0.0 0.0 5.084239895140529 0.0 0.0 0.0 5.084239895140529" Properties=species:S:1:pos:R:3:charges:R:1:forces:R:3 energy=-2469.538850598634 free_energy=-2469.538850598634 pbc="T T T"
Li       1.24182559       4.73851158       1.61933041      -0.14000000       0.77427795      -2.48114258      -1.47020924
Li       1.26546731       1.95666972       4.49878967      -0.24000000     -30.26528681     -37.31175703       8.62867312
Li       1.40579233       1.91853792       1.36842317      -0.07000000      50.81655686     125.84410024      60.49439099
Li       1.35647520       1.38367589       1.37782901       0.03000000     -16.64998765    -207.41640138      10.08645159
Cl       0.60502455       0.30098700       3.31416178       0.14000000      -3.59202549       1.12807125       1.86031192
Cl       1.13632762       2.55228843       0.78551506       0.57000000     -38.88490270      87.20319986     -52.89652533
Cl       2.81412678       4.09560945       3.66421169      -0.26000000       9.25243380       9.16537033      -2.88576505
Cl       1.97776932       2.71091671       4.06459558      -0.03000000      28.54893455      23.86855903     -23.81732775
8
Lattice="5.084239895140529 0.0 0.0 0.0 5.084239895140529 0.0 0.0 0.0 5.084239895140529" Properties=species:S:1:pos:R:3:charges:R:1:forces:R:3 energy=-2492.6857107372175 free_energy=-2492.6857107372175 pbc="T T T"
Li       1.49019071       4.66936592       1.94319649      -0.16000000      74.97725518      23.54251564     -49.67096894
Li       2.02698476       1.83957968       4.38169963      -0.15000000       2.03366547     -21.92813745      13.90512702
Li       2.19537479       2.30224551       1.13368381      -0.09000000      27.44279506       9.36370909       4.91438756
Li       1.62777024       1.15198708       1.14497082      -0.05000000      26.59277704     -38.12028516       8.44465284
Cl       0.72602946       4.42857632       2.45172216       0.33000000     -77.53222081     -19.69057425      48.55766481
Cl       0.85516915       2.04589813       0.94261808       0.37000000     -56.53497903      28.28653059     -11.46551419
Cl       2.36010416       3.38945937       4.39705403      -0.18000000      31.57620566      45.51716949      57.93285285
Cl       1.86489919       2.74467606       3.35224273      -0.07000000     -28.55549832     -26.97092795     -72.61820169
8
Lattice="5.084239895140529 0.0 0.0 0.0 5.084239895140529 0.0 0.0 0.0 5.084239895140529" Properties=species:S:1:pos:R:3:charges:R:1:forces:R:3 energy=-2536.1789024630034 free_energy=-2536.1789024630034 pbc="T T T"
Li       1.73855583       4.60022026       2.26706257      -0.08000000       5.35849112       9.09163521       5.40483345
Li       2.78850221       1.72248963       4.26460958      -0.12000000       7.48431341      -7.86488039      -7.91559951
Li       2.98495724       2.68595309       0.89894446      -0.12000000      21.32722179       1.22915778      14.69161694
Li       1.89906529       0.92029826       0.91211264      -0.05000000      13.33164555      -7.07627805      -2.28198852
Cl       0.84703437       3.47192574       1.58928255      -0.04000000     -24.47618039      16.79410466     -10.86480216
Cl       0.57401068       1.53950784       1.09972109       0.18000000     -23.89090012      -9.53116324       1.65688033
Cl       1.90608154       2.68330929       0.04565647       0.34000000     -13.97456095       7.31854282     -18.29879188
Cl       1.75202907       2.77843542       2.63988988      -0.10000000      14.83996959      -9.96111905      17.60785162
8
Lattice="5.084244657735405 0.0 0.0 0.0 5.084244657735405 0.0 0.0 0.0 5.084244657735405" Properties=species:S:1:pos:R:3:charges:R:1:forces:R:3 energy=-2581.295843451286 free_energy=-2581.295843451286 pbc="T T T"
Li       0.00000000       0.00000000       0.00000000      -0.12000000       0.00000000       0.00000000       0.00000000
Li       2.54212233       2.54212233       0.00000000      -0.12000000       0.00000000       0.00000000       0.00000000
Li       2.54212233       0.00000000       2.54212233      -0.12000000       0.00000000       0.00000000       0.00000000
Li       0.00000000       2.54212233       2.54212233      -0.12000000       0.00000000       0.00000000       0.00000000
Cl       0.00000000       0.00000000       2.54212233       0.12000000       0.00000000       0.00000000       0.00000000
Cl       2.54212233       0.00000000       0.00000000       0.12000000       0.00000000       0.00000000       0.00000000
Cl       0.00000000       2.54212233       0.00000000       0.12000000       0.00000000       0.00000000       0.00000000
Cl       2.54212233       2.54212233       2.54212233       0.12000000       0.00000000       0.00000000       0.00000000
8
Lattice="5.084239895140529 0.0 0.0 0.0 5.084239895140529 0.0 0.0 0.0 5.084239895140529" Properties=species:S:1:pos:R:3:charges:R:1:forces:R:3 energy=-2425.31079640359 free_energy=-2425.31079640359 pbc="T T T"
Li       0.74509536       4.87680291       0.97159824      -0.11000000      -2.50439538       1.63861598       0.56884012
Li       4.82667230       2.19084981       4.73296976      -0.29000000    -250.21195893     -11.83920681    -127.29564122
Li       4.91086731       1.15112275       1.83790188      -0.06000000       7.92800688       6.86302510      -3.88468748
Li       0.81388512       1.84705351       1.84354539      -0.06000000       6.01968501       4.13433106       3.46578176
Cl       0.36301473       2.21428816       5.03904100       0.47000000     238.37394280       7.02120451     122.52050512
Cl       1.69864455       3.56506901       0.47130904      -0.03000000    -122.53446313     238.69558009      17.42122089
Cl       3.72217203       0.42366971       2.19852702       0.22000000     -15.27494291     -10.20641540       5.06343364
Cl       2.20350957       2.64339801       0.40506139      -0.14000000     138.20412539    -236.30713453     -17.85945283
8
Lattice="5.084239895140529 0.0 0.0 0.0 5.084239895140529 0.0 0.0 0.0 5.084239895140529" Properties=species:S:1:pos:R:3:charges:R:1:forces:R:3 energy=-2444.9555013697295 free_energy=-2444.9555013697295 pbc="T T T"
Li       0.99346048       4.80765724       1.29546433      -0.08000000      -0.33161214      -0.61494874       1.46895608
Li       0.50394986       2.07375977       4.61587972      -0.28000000      -1.75987178      85.07024688      44.15097886
Li       0.61620988       1.53483034       1.60316252       0.09000000    -309.64388833     -50.76447840      -3.77258610
Li       1.08518016       1.61536470       1.61068720       0.09000000     308.21221813      51.37247616       7.57841193
Cl       0.48401964       1.25763758       4.17660139       0.25000000      -6.26711358     -91.60294230     -49.35223134
Cl       1.41748608       3.05867872       0.62841205       0.03000000     -70.23854930      42.91469707     101.07115182
Cl       3.26814940       4.80175953       2.93136935       0.19000000      -0.11302107      -0.04843316      -0.57330587
Cl       2.09063944       2.67715736       4.77694844      -0.29000000      80.14183807     -36.32661777    -100.57137564
8
Lattice="5.084239895140529 0.0 0.0 0.0 5.084239895140529 0.0 0.0 0.0 5.084239895140529" Properties=species:S:1:pos:R:3:charges:R:1:forces:R:3 energy=-2469.538850598634 free_energy=-2469.538850598634 pbc="T T T"
Li       1.24182559       4.73851158       1.61933041      -0.14000000       0.77427795      -2.48114258      -1.47020924
Li       1.26546731       1.95666972       4.49878967      -0.24000000     -30.26528681     -37.31175703       8.62867312
Li       1.40579233       1.91853792       1.36842317      -0.07000000      50.81655686     125.84410024      60.49439099
Li       1.35647520       1.38367589       1.37782901       0.03000000     -16.64998765    -207.41640138      10.08645159
Cl       0.60502455       0.30098700       3.31416178       0.14000000      -3.59202549       1.12807125       1.86031192
Cl       1.13632762       2.55228843       0.78551506       0.57000000     -38.88490270      87.20319986     -52.89652533
Cl       2.81412678       4.09560945       3.66421169      -0.26000000       9.25243380       9.16537033      -2.88576505
Cl       1.97776932       2.71091671       4.06459558      -0.03000000      28.54893455      23.86855903     -23.81732775
8
Lattice="5.084239895140529 0.0 0.0 0.0 5.084239895140529 0.0 0.0 0.0 5.084239895140529" Properties=species:S:1:pos:R:3:charges:R:1:forces:R:3 energy=-2492.6857107372175 free_energy=-2492.6857107372175 pbc="T T T"
Li       1.49019071       4.66936592       1.94319649      -0.16000000      74.97725518      23.54251564     -49.67096894
Li       2.02698476       1.83957968       4.38169963      -0.15000000       2.03366547     -21.92813745      13.90512702
Li       2.19537479       2.30224551       1.13368381      -0.09000000      27.44279506       9.36370909       4.91438756
Li       1.62777024       1.15198708       1.14497082      -0.05000000      26.59277704     -38.12028516       8.44465284
Cl       0.72602946       4.42857632       2.45172216       0.33000000     -77.53222081     -19.69057425      48.55766481
Cl       0.85516915       2.04589813       0.94261808       0.37000000     -56.53497903      28.28653059     -11.46551419
Cl       2.36010416       3.38945937       4.39705403      -0.18000000      31.57620566      45.51716949      57.93285285
Cl       1.86489919       2.74467606       3.35224273      -0.07000000     -28.55549832     -26.97092795     -72.61820169
8
Lattice="5.084239895140529 0.0 0.0 0.0 5.084239895140529 0.0 0.0 0.0 5.084239895140529" Properties=species:S:1:pos:R:3:charges:R:1:forces:R:3 energy=-2536.1789024630034 free_energy=-2536.1789024630034 pbc="T T T"
Li       1.73855583       4.60022026       2.26706257      -0.08000000       5.35849112       9.09163521       5.40483345
Li       2.78850221       1.72248963       4.26460958      -0.12000000       7.48431341      -7.86488039      -7.91559951
Li       2.98495724       2.68595309       0.89894446      -0.12000000      21.32722179       1.22915778      14.69161694
Li       1.89906529       0.92029826       0.91211264      -0.05000000      13.33164555      -7.07627805      -2.28198852
Cl       0.84703437       3.47192574       1.58928255      -0.04000000     -24.47618039      16.79410466     -10.86480216
Cl       0.57401068       1.53950784       1.09972109       0.18000000     -23.89090012      -9.53116324       1.65688033
Cl       1.90608154       2.68330929       0.04565647       0.34000000     -13.97456095       7.31854282     -18.29879188
Cl       1.75202907       2.77843542       2.63988988      -0.10000000      14.83996959      -9.96111905      17.60785162
8
Lattice="5.084244657735405 0.0 0.0 0.0 5.084244657735405 0.0 0.0 0.0 5.084244657735405" Properties=species:S:1:pos:R:3:charges:R:1:forces:R:3 energy=-2581.295843451286 free_energy=-2581.295843451286 pbc="T T T"
Li       0.00000000       0.00000000       0.00000000      -0.12000000       0.00000000       0.00000000       0.00000000
Li       2.54212233       2.54212233       0.00000000      -0.12000000       0.00000000       0.00000000       0.00000000
Li       2.54212233       0.00000000       2.54212233      -0.12000000       0.00000000       0.00000000       0.00000000
Li       0.00000000       2.54212233       2.54212233      -0.12000000       0.00000000       0.00000000       0.00000000
Cl       0.00000000       0.00000000       2.54212233       0.12000000       0.00000000       0.00000000       0.00000000
Cl       2.54212233       0.00000000       0.00000000       0.12000000       0.00000000       0.00000000       0.00000000
Cl       0.00000000       2.54212233       0.00000000       0.12000000       0.00000000       0.00000000       0.00000000
Cl       2.54212233       2.54212233       2.54212233       0.12000000       0.00000000       0.00000000       0.00000000
8
Lattice="5.084239895140529 0.0 0.0 0.0 5.084239895140529 0.0 0.0 0.0 5.084239895140529" Properties=species:S:1:pos:R:3:charges:R:1:forces:R:3 energy=-2425.31079640359 free_energy=-2425.31079640359 pbc="T T T"
Li       0.74509536       4.87680291       0.97159824      -0.11000000      -2.50439538       1.63861598       0.56884012
Li       4.82667230       2.19084981       4.73296976      -0.29000000    -250.21195893     -11.83920681    -127.29564122
Li       4.91086731       1.15112275       1.83790188      -0.06000000       7.92800688       6.86302510      -3.88468748
Li       0.81388512       1.84705351       1.84354539      -0.06000000       6.01968501       4.13433106       3.46578176
Cl       0.36301473       2.21428816       5.03904100       0.47000000     238.37394280       7.02120451     122.52050512
Cl       1.69864455       3.56506901       0.47130904      -0.03000000    -122.53446313     238.69558009      17.42122089
Cl       3.72217203       0.42366971       2.19852702       0.22000000     -15.27494291     -10.20641540       5.06343364
Cl       2.20350957       2.64339801       0.40506139      -0.14000000     138.20412539    -236.30713453     -17.85945283
8
Lattice="5.084239895140529 0.0 0.0 0.0 5.084239895140529 0.0 0.0 0.0 5.084239895140529" Properties=species:S:1:pos:R:3:charges:R:1:forces:R:3 energy=-2444.9555013697295 free_energy=-2444.9555013697295 pbc="T T T"
Li       0.99346048       4.80765724       1.29546433      -0.08000000      -0.33161214      -0.61494874       1.46895608
Li       0.50394986       2.07375977       4.61587972      -0.28000000      -1.75987178      85.07024688      44.15097886
Li       0.61620988       1.53483034       1.60316252       0.09000000    -309.64388833     -50.76447840      -3.77258610
Li       1.08518016       1.61536470       1.61068720       0.09000000     308.21221813      51.37247616       7.57841193
Cl       0.48401964       1.25763758       4.17660139       0.25000000      -6.26711358     -91.60294230     -49.35223134
Cl       1.41748608       3.05867872       0.62841205       0.03000000     -70.23854930      42.91469707     101.07115182
Cl       3.26814940       4.80175953       2.93136935       0.19000000      -0.11302107      -0.04843316      -0.57330587
Cl       2.09063944       2.67715736       4.77694844      -0.29000000      80.14183807     -36.32661777    -100.57137564
8
Lattice="5.084239895140529 0.0 0.0 0.0 5.084239895140529 0.0 0.0 0.0 5.084239895140529" Properties=species:S:1:pos:R:3:charges:R:1:forces:R:3 energy=-2469.538850598634 free_energy=-2469.538850598634 pbc="T T T"
Li       1.24182559       4.73851158       1.61933041      -0.14000000       0.77427795      -2.48114258      -1.47020924
Li       1.26546731       1.95666972       4.49878967      -0.24000000     -30.26528681     -37.31175703       8.62867312
Li       1.40579233       1.91853792       1.36842317      -0.07000000      50.81655686     125.84410024      60.49439099
Li       1.35647520       1.38367589       1.37782901       0.03000000     -16.64998765    -207.41640138      10.08645159
Cl       0.60502455       0.30098700       3.31416178       0.14000000      -3.59202549       1.12807125       1.86031192
Cl       1.13632762       2.55228843       0.78551506       0.57000000     -38.88490270      87.20319986     -52.89652533
Cl       2.81412678       4.09560945       3.66421169      -0.26000000       9.25243380       9.16537033      -2.88576505
Cl       1.97776932       2.71091671       4.06459558      -0.03000000      28.54893455      23.86855903     -23.81732775
8
Lattice="5.084239895140529 0.0 0.0 0.0 5.084239895140529 0.0 0.0 0.0 5.084239895140529" Properties=species:S:1:pos:R:3:charges:R:1:forces:R:3 energy=-2492.6857107372175 free_energy=-2492.6857107372175 pbc="T T T"
Li       1.49019071       4.66936592       1.94319649      -0.16000000      74.97725518      23.54251564     -49.67096894
Li       2.02698476       1.83957968       4.38169963      -0.15000000       2.03366547     -21.92813745      13.90512702
Li       2.19537479       2.30224551       1.13368381      -0.09000000      27.44279506       9.36370909       4.91438756
Li       1.62777024       1.15198708       1.14497082      -0.05000000      26.59277704     -38.12028516       8.44465284
Cl       0.72602946       4.42857632       2.45172216       0.33000000     -77.53222081     -19.69057425      48.55766481
Cl       0.85516915       2.04589813       0.94261808       0.37000000     -56.53497903      28.28653059     -11.46551419
Cl       2.36010416       3.38945937       4.39705403      -0.18000000      31.57620566      45.51716949      57.93285285
Cl       1.86489919       2.74467606       3.35224273      -0.07000000     -28.55549832     -26.97092795     -72.61820169
8
Lattice="5.084239895140529 0.0 0.0 0.0 5.084239895140529 0.0 0.0 0.0 5.084239895140529" Properties=species:S:1:pos:R:3:charges:R:1:forces:R:3 energy=-2536.1789024630034 free_energy=-2536.1789024630034 pbc="T T T"
Li       1.73855583       4.60022026       2.26706257      -0.08000000       5.35849112       9.09163521       5.40483345
Li       2.78850221       1.72248963       4.26460958      -0.12000000       7.48431341      -7.86488039      -7.91559951
Li       2.98495724       2.68595309       0.89894446      -0.12000000      21.32722179       1.22915778      14.69161694
Li       1.89906529       0.92029826       0.91211264      -0.05000000      13.33164555      -7.07627805      -2.28198852
Cl       0.84703437       3.47192574       1.58928255      -0.04000000     -24.47618039      16.79410466     -10.86480216
Cl       0.57401068       1.53950784       1.09972109       0.18000000     -23.89090012      -9.53116324       1.65688033
Cl       1.90608154       2.68330929       0.04565647       0.34000000     -13.97456095       7.31854282     -18.29879188
Cl       1.75202907       2.77843542       2.63988988      -0.10000000      14.83996959      -9.96111905      17.60785162
8
Lattice="5.084244657735405 0.0 0.0 0.0 5.084244657735405 0.0 0.0 0.0 5.084244657735405" Properties=species:S:1:pos:R:3:charges:R:1:forces:R:3 energy=-2581.295843451286 free_energy=-2581.295843451286 pbc="T T T"
Li       0.00000000       0.00000000       0.00000000      -0.12000000       0.00000000       0.00000000       0.00000000
Li       2.54212233       2.54212233       0.00000000      -0.12000000       0.00000000       0.00000000       0.00000000
Li       2.54212233       0.00000000       2.54212233      -0.12000000       0.00000000       0.00000000       0.00000000
Li       0.00000000       2.54212233       2.54212233      -0.12000000       0.00000000       0.00000000       0.00000000
Cl       0.00000000       0.00000000       2.54212233       0.12000000       0.00000000       0.00000000       0.00000000
Cl       2.54212233       0.00000000       0.00000000       0.12000000       0.00000000       0.00000000       0.00000000
Cl       0.00000000       2.54212233       0.00000000       0.12000000       0.00000000       0.00000000       0.00000000
Cl       2.54212233       2.54212233       2.54212233       0.12000000       0.00000000       0.00000000       0.00000000
8
Lattice="5.084239895140529 0.0 0.0 0.0 5.084239895140529 0.0 0.0 0.0 5.084239895140529" Properties=species:S:1:pos:R:3:charges:R:1:forces:R:3 energy=-2425.31079640359 free_energy=-2425.31079640359 pbc="T T T"